 &FCI NORB= 23,NELEC=  8,MS2= 0,
  ORBSYM=1,1,1,1,1,1,1,1,1,1,2,2,2,2,3,3,3,3,3,3,3,4,4,
  ISYM=1,
 /
  0.7958990621550315E+00   1   1   1   1
 -0.2865950310894817E-01   2   1   1   1
  0.8557389270341834E-01   2   1   2   1
  0.5079090578075600E+00   2   2   1   1
 -0.1016473908376514E-01   2   2   2   1
  0.4035404478376012E+00   2   2   2   2
  0.2625634001379012E-01   3   1   1   1
  0.7292885938232106E-01   3   1   2   1
  0.1284540306392357E-01   3   1   2   2
  0.6763450308953302E-01   3   1   3   1
  0.2644862912854372E+00   3   2   1   1
 -0.1871394385520062E-01   3   2   2   1
  0.1221201607936544E+00   3   2   2   2
  0.1002766093023177E-01   3   2   3   1
  0.1643958432425111E+00   3   2   3   2
  0.4438628573592656E+00   3   3   1   1
  0.5216017034084197E-02   3   3   2   1
  0.3733511420336649E+00   3   3   2   2
  0.2102927893881906E-01   3   3   3   1
  0.8014257142844936E-01   3   3   3   2
  0.3588262801923809E+00   3   3   3   3
 -0.3385578714381846E-01   4   1   1   1
 -0.4091251166083078E-02   4   1   2   1
 -0.1648458619009240E-01   4   1   2   2
 -0.7344393010685228E-02   4   1   3   1
 -0.1361748719083053E-01   4   1   3   2
 -0.1552846283529886E-01   4   1   3   3
  0.3660174600627879E-02   4   1   4   1
 -0.1946471015274527E-01   4   2   1   1
 -0.2081734023196882E-02   4   2   2   1
 -0.2970837121554118E-01   4   2   2   2
 -0.1630968817073697E-02   4   2   3   1
  0.1399117756708212E-01   4   2   3   2
 -0.3791552007667762E-01   4   2   3   3
  0.3149278085001305E-02   4   2   4   1
  0.2741660149830450E-01   4   2   4   2
 -0.1931338704271728E-01   4   3   1   1
  0.8963129545253363E-03   4   3   2   1
  0.1695615158730936E-01   4   3   2   2
 -0.4763433897255791E-02   4   3   3   1
 -0.4104778956909370E-01   4   3   3   2
  0.2886989307380626E-01   4   3   3   3
  0.5732458844741897E-03   4   3   4   1
 -0.3011104680735868E-01   4   3   4   2
  0.4119091715419544E-01   4   3   4   3
  0.2127431916476117E+00   4   4   1   1
  0.1657754290664708E-01   4   4   2   1
  0.2599680239934222E+00   4   4   2   2
  0.8548368206789930E-02   4   4   3   1
 -0.5516212387595090E-01   4   4   3   2
  0.2781511609753319E+00   4   4   3   3
 -0.3154987963601641E-02   4   4   4   1
 -0.5231233139635522E-01   4   4   4   2
  0.6838270159686347E-01   4   4   4   3
  0.3280143021843425E+00   4   4   4   4
  0.7051280345270180E-03   5   1   1   1
 -0.3665550407603159E-01   5   1   2   1
  0.6872890447547306E-02   5   1   2   2
 -0.3444241874894001E-01   5   1   3   1
 -0.3289856954166782E-02   5   1   3   2
 -0.2501428547983310E-02   5   1   3   3
  0.4502577772950610E-02   5   1   4   1
  0.4228336120115284E-02   5   1   4   2
  0.5317352489661610E-02   5   1   4   3
  0.3748636963626922E-02   5   1   4   4
  0.4083283233852986E-01   5   1   5   1
 -0.1326015869130193E+00   5   2   1   1
  0.1415331708398291E-01   5   2   2   1
 -0.6409757774109814E-01   5   2   2   2
 -0.3352727540134148E-02   5   2   3   1
 -0.6420277656609139E-01   5   2   3   2
 -0.5584861690357523E-01   5   2   3   3
  0.1314275499762059E-01   5   2   4   1
  0.6220411298956731E-02   5   2   4   2
  0.1024760845520795E-01   5   2   4   3
  0.3180463664485640E-02   5   2   4   4
 -0.4468146446162959E-03   5   2   5   1
  0.8076456932063523E-01   5   2   5   2
 -0.1551633126989347E+00   5   3   1   1
  0.1087711854868368E-02   5   3   2   1
 -0.8367809440766406E-01   5   3   2   2
 -0.1431827763519327E-01   5   3   3   1
 -0.7243182368639177E-01   5   3   3   2
 -0.6882329072204256E-01   5   3   3   3
  0.1307397918155375E-01   5   3   4   1
  0.7105730100470232E-02   5   3   4   2
  0.7814710357276962E-02   5   3   4   3
 -0.6487975080838621E-02   5   3   4   4
  0.2046460651662773E-02   5   3   5   1
  0.6275964224964738E-01   5   3   5   2
  0.7261749231405083E-01   5   3   5   3
  0.3637356451757590E-01   5   4   1   1
  0.1040133815741238E-01   5   4   2   1
  0.2060698173945510E-01   5   4   2   2
  0.1226380564461836E-01   5   4   3   1
  0.1838118946855379E-01   5   4   3   2
  0.1709344067982813E-01   5   4   3   3
 -0.2387987249852183E-02   5   4   4   1
  0.1535876363525790E-02   5   4   4   2
 -0.3606136971735499E-02   5   4   4   3
  0.2051338937108564E-03   5   4   4   4
 -0.3644278708344268E-02   5   4   5   1
 -0.9563885942374898E-02   5   4   5   2
 -0.8572003888281074E-02   5   4   5   3
  0.8483400373685343E-02   5   4   5   4
  0.5849189866706794E+00   5   5   1   1
 -0.1260418756336419E-01   5   5   2   1
  0.4338767530161339E+00   5   5   2   2
  0.1944626283067876E-01   5   5   3   1
  0.1755739591155673E+00   5   5   3   2
  0.3904852901021514E+00   5   5   3   3
 -0.2157900974325157E-01   5   5   4   1
 -0.2301198738415142E-01   5   5   4   2
 -0.4972560253438396E-04   5   5   4   3
  0.2327230198892176E+00   5   5   4   4
 -0.1449526136930654E-03   5   5   5   1
 -0.8914187993209274E-01   5   5   5   2
 -0.1120054697738405E+00   5   5   5   3
  0.2842819814132282E-01   5   5   5   4
  0.5056278905768498E+00   5   5   5   5
  0.1305867425787631E+00   6   1   1   1
 -0.1575545057896036E-01   6   1   2   1
  0.6288597572972557E-01   6   1   2   2
  0.1826399375303650E-03   6   1   3   1
  0.5516348081325685E-01   6   1   3   2
  0.5116089167070665E-01   6   1   3   3
 -0.1169428301770167E-01   6   1   4   1
 -0.4041691052647716E-02   6   1   4   2
 -0.6103547800809014E-02   6   1   4   3
  0.2824140315786431E-02   6   1   4   4
  0.1040178431085891E-01   6   1   5   1
 -0.6053249051666437E-01   6   1   5   2
 -0.5516549213443375E-01   6   1   5   3
  0.7485627911428585E-02   6   1   5   4
  0.8495318574332233E-01   6   1   5   5
  0.6133706642346538E-01   6   1   6   1
 -0.6014188502336301E-01   6   2   1   1
  0.8807052271159979E-02   6   2   2   1
 -0.3937692392717415E-01   6   2   2   2
  0.4282833625872280E-02   6   2   3   1
 -0.2146166430086408E-01   6   2   3   2
 -0.2845457947004171E-01   6   2   3   3
  0.2523722327421744E-02   6   2   4   1
  0.1671873803972257E-02   6   2   4   2
 -0.3246072509065650E-02   6   2   4   3
 -0.1248674026511281E-01   6   2   4   4
 -0.2208439052048910E-01   6   2   5   1
  0.1595973520962643E-01   6   2   5   2
  0.2973009636223334E-01   6   2   5   3
 -0.4998277487649845E-03   6   2   5   4
 -0.4454628467515975E-01   6   2   5   5
 -0.2462223939806621E-01   6   2   6   1
  0.3295867745726082E-01   6   2   6   2
  0.7599309885176672E-03   6   3   1   1
  0.8614363879047114E-02   6   3   2   1
 -0.1120524186636481E-02   6   3   2   2
  0.6959200343731983E-02   6   3   3   1
  0.3032111844631374E-02   6   3   3   2
 -0.2130048045749501E-02   6   3   3   3
  0.3625934373253376E-03   6   3   4   1
 -0.2219003111435620E-02   6   3   4   2
 -0.6787818624516819E-03   6   3   4   3
 -0.2394928245973739E-02   6   3   4   4
 -0.1762197918721901E-01   6   3   5   1
  0.2045725151430011E-01   6   3   5   2
  0.1968559508221374E-02   6   3   5   3
 -0.4255175201371129E-02   6   3   5   4
  0.1891689658335640E-02   6   3   5   5
 -0.1557276649585796E-01   6   3   6   1
  0.3506119100392699E-02   6   3   6   2
  0.2712117710887123E-01   6   3   6   3
 -0.3678905052263193E-01   6   4   1   1
  0.2745784921754636E-02   6   4   2   1
 -0.1429956079333730E-01   6   4   2   2
 -0.1352411820624072E-02   6   4   3   1
 -0.2119183280966860E-01   6   4   3   2
 -0.1001097277862156E-01   6   4   3   3
  0.1548026881671791E-02   6   4   4   1
 -0.2663175234017881E-02   6   4   4   2
  0.5970245353607018E-02   6   4   4   3
  0.9373428287456154E-02   6   4   4   4
  0.1959020316972564E-02   6   4   5   1
  0.1081800061663623E-01   6   4   5   2
  0.2945958991631241E-02   6   4   5   3
 -0.6944657804254122E-02   6   4   5   4
 -0.2268516982514674E-01   6   4   5   5
 -0.6410517079728964E-02   6   4   6   1
 -0.5589994211302114E-02   6   4   6   2
  0.6607381709919541E-02   6   4   6   3
  0.1180181868937962E-01   6   4   6   4
  0.1031028094028016E+00   6   5   1   1
 -0.6342030349377455E-01   6   5   2   1
  0.3702517302236973E-01   6   5   2   2
 -0.4438547298923953E-01   6   5   3   1
  0.7712075013245046E-01   6   5   3   2
  0.1122546785989327E-01   6   5   3   3
 -0.1537963325159030E-02   6   5   4   1
  0.1042063604668964E-01   6   5   4   2
 -0.2198656124316131E-01   6   5   4   3
 -0.4695115102692782E-01   6   5   4   4
  0.1820631868998124E-01   6   5   5   1
 -0.2940087330193753E-01   6   5   5   2
 -0.2229792172847613E-01   6   5   5   3
 -0.1498525265122876E-02   6   5   5   4
  0.6689031222015075E-01   6   5   5   5
  0.2575807969302674E-01   6   5   6   1
 -0.7761910057210811E-02   6   5   6   2
 -0.3470835988779548E-03   6   5   6   3
 -0.1124598316441021E-01   6   5   6   4
  0.8513931114096729E-01   6   5   6   5
  0.4721759994232400E+00   6   6   1   1
 -0.3542253466488678E-01   6   6   2   1
  0.3722112948548440E+00   6   6   2   2
 -0.1287701172606741E-01   6   6   3   1
  0.9438129952283011E-01   6   6   3   2
  0.3465474767395094E+00   6   6   3   3
 -0.1258187392091713E-01   6   6   4   1
 -0.3208670576420580E-01   6   6   4   2
  0.2324574194875192E-01   6   6   4   3
  0.2553304569322983E+00   6   6   4   4
  0.1220396670540936E-01   6   6   5   1
 -0.5006063602609021E-01   6   6   5   2
 -0.6343597274159854E-01   6   6   5   3
  0.1169478464605672E-01   6   6   5   4
  0.4042843390972985E+00   6   6   5   5
  0.5269518744238533E-01   6   6   6   1
 -0.3168732283810255E-01   6   6   6   2
  0.2608368960935005E-02   6   6   6   3
 -0.1393201638042077E-01   6   6   6   4
  0.4801752655084716E-01   6   6   6   5
  0.3802977912333828E+00   6   6   6   6
 -0.2122513676227891E-01   7   1   1   1
  0.4133919327480085E-02   7   1   2   1
 -0.1042038369298342E-01   7   1   2   2
  0.1470863116897976E-02   7   1   3   1
 -0.8648548905553615E-02   7   1   3   2
 -0.8159274791022603E-02   7   1   3   3
  0.1699171688738913E-02   7   1   4   1
  0.5007387530546842E-03   7   1   4   2
  0.6841916466242920E-03   7   1   4   3
 -0.6881362537831269E-03   7   1   4   4
 -0.3660832006915259E-02   7   1   5   1
  0.1001272012839502E-01   7   1   5   2
  0.8863238523195880E-02   7   1   5   3
 -0.1077697140877006E-02   7   1   5   4
 -0.1364612117733238E-01   7   1   5   5
 -0.1053249672799719E-01   7   1   6   1
  0.5405323664947582E-02   7   1   6   2
  0.3146177471065412E-02   7   1   6   3
  0.7777168747631498E-03   7   1   6   4
 -0.4871022878983914E-02   7   1   6   5
 -0.9162857304795255E-02   7   1   6   6
  0.1984329621081392E-02   7   1   7   1
  0.1413170377550836E-01   7   2   1   1
 -0.2434632434981846E-03   7   2   2   1
  0.1059654625421368E-01   7   2   2   2
  0.8357743754314547E-03   7   2   3   1
  0.4548580051146162E-02   7   2   3   2
  0.8296900888208695E-02   7   2   3   3
 -0.1049479145074562E-02   7   2   4   1
 -0.1920653190138791E-03   7   2   4   2
  0.5031372617099270E-03   7   2   4   3
  0.4820574191477186E-02   7   2   4   4
  0.4179712823075617E-02   7   2   5   1
 -0.4222940870072853E-02   7   2   5   2
 -0.9138743586715715E-02   7   2   5   3
  0.2555467468707141E-03   7   2   5   4
  0.1185090535951101E-01   7   2   5   5
  0.7368487512668272E-02   7   2   6   1
 -0.2594345148156471E-02   7   2   6   2
 -0.7126003348505130E-02   7   2   6   3
 -0.2048616827124608E-02   7   2   6   4
 -0.4991563303278720E-04   7   2   6   5
  0.6274192355810383E-02   7   2   6   6
 -0.4802492732462835E-04   7   2   7   1
  0.2511832559194332E-01   7   2   7   2
  0.8149292564680666E-02   7   3   1   1
 -0.2913548072942403E-02   7   3   2   1
  0.2457895128971043E-02   7   3   2   2
 -0.1569427938814916E-02   7   3   3   1
  0.4050233215387023E-02   7   3   3   2
  0.2453093047337817E-02   7   3   3   3
 -0.6966194905538769E-03   7   3   4   1
 -0.6344001773757571E-03   7   3   4   2
 -0.3859090321406468E-03   7   3   4   3
 -0.1828619324243772E-02   7   3   4   4
  0.2107906302634142E-02   7   3   5   1
 -0.8974622183898039E-02   7   3   5   2
 -0.2289415082739250E-02   7   3   5   3
  0.1486613322886225E-02   7   3   5   4
  0.3976330644886366E-02   7   3   5   5
  0.4704109158617024E-02   7   3   6   1
 -0.6460942787751760E-02   7   3   6   2
  0.1995289564621922E-02   7   3   6   3
  0.2014250575453273E-02   7   3   6   4
  0.3247064801356040E-02   7   3   6   5
  0.3264806082404312E-02   7   3   6   6
 -0.2519353598589530E-02   7   3   7   1
 -0.2781071573202136E-01   7   3   7   2
  0.3514848511661985E-01   7   3   7   3
  0.4615145009883456E-02   7   4   1   1
 -0.1358243358037238E-02   7   4   2   1
  0.1081102865295649E-02   7   4   2   2
 -0.7052837750322744E-03   7   4   3   1
  0.2832703773706447E-02   7   4   3   2
  0.7707772132889114E-03   7   4   3   3
 -0.1466763315711798E-03   7   4   4   1
  0.1749859642243962E-03   7   4   4   2
 -0.7179689114681252E-03   7   4   4   3
 -0.1887742275581223E-02   7   4   4   4
 -0.3085365279569657E-03   7   4   5   1
 -0.2522295410907963E-02   7   4   5   2
  0.1063062602910967E-02   7   4   5   3
  0.1619088489182236E-02   7   4   5   4
  0.2211751803069828E-02   7   4   5   5
  0.4560340338809277E-03   7   4   6   1
 -0.2172662067742072E-02   7   4   6   2
  0.3195206316245866E-02   7   4   6   3
  0.1860362578524721E-02   7   4   6   4
  0.2437505618762340E-02   7   4   6   5
  0.2408565992678891E-02   7   4   6   6
 -0.1123805265670483E-02   7   4   7   1
 -0.1914697853957330E-01   7   4   7   2
  0.2318016609699561E-01   7   4   7   3
  0.2149416212550062E-01   7   4   7   4
 -0.3656163455697951E-01   7   5   1   1
  0.1226651460397752E-01   7   5   2   1
 -0.1387526424539000E-01   7   5   2   2
  0.6842849484424735E-02   7   5   3   1
 -0.2606707955710290E-01   7   5   3   2
 -0.6142797976855949E-02   7   5   3   3
  0.1199183264907567E-02   7   5   4   1
 -0.3523951972789534E-02   7   5   4   2
  0.7746911171952994E-02   7   5   4   3
  0.1393975944970039E-01   7   5   4   4
 -0.2555575619178396E-02   7   5   5   1
  0.9830163093689398E-02   7   5   5   2
  0.9208773782367044E-02   7   5   5   3
 -0.1111562024453551E-02   7   5   5   4
 -0.2409474751182324E-01   7   5   5   5
 -0.8385201858176115E-02   7   5   6   1
  0.2596871005095258E-02   7   5   6   2
 -0.2206430182346542E-03   7   5   6   3
  0.3710141604233607E-02   7   5   6   4
 -0.2064557245841345E-01   7   5   6   5
 -0.1650838757952072E-01   7   5   6   6
  0.1498019507715202E-02   7   5   7   1
 -0.7020422538261616E-03   7   5   7   2
  0.2100795243361342E-03   7   5   7   3
 -0.6900137828140668E-03   7   5   7   4
  0.9586024536770363E-02   7   5   7   5
 -0.4898204710965112E-01   7   6   1   1
  0.1180919268171663E-01   7   6   2   1
 -0.1765007447559290E-01   7   6   2   2
  0.5200840789079418E-02   7   6   3   1
 -0.3332546245043884E-01   7   6   3   2
 -0.7476137624761584E-02   7   6   3   3
  0.1707377762665707E-02   7   6   4   1
 -0.5335232612128721E-02   7   6   4   2
  0.1043207100718985E-01   7   6   4   3
  0.1787281354888273E-01   7   6   4   4
 -0.2110543125352515E-02   7   6   5   1
  0.1026193528425422E-01   7   6   5   2
  0.1111982618537601E-01   7   6   5   3
 -0.2186827203386954E-02   7   6   5   4
 -0.3166257462740763E-01   7   6   5   5
 -0.9979473558027009E-02   7   6   6   1
  0.3313869691589371E-02   7   6   6   2
 -0.1022191743238196E-02   7   6   6   3
  0.4842285923174437E-02   7   6   6   4
 -0.2284299748353860E-01   7   6   6   5
 -0.1628808481056362E-01   7   6   6   6
  0.1529033230729271E-02   7   6   7   1
 -0.8550372861186452E-03   7   6   7   2
 -0.9118037279175925E-03   7   6   7   3
  0.1050955085604545E-03   7   6   7   4
  0.1609706064091063E-02   7   6   7   5
  0.1774802224927647E-01   7   6   7   6
  0.2152721507733387E+00   7   7   1   1
  0.1504935447927061E-01   7   7   2   1
  0.2813309101154131E+00   7   7   2   2
  0.4694794892711084E-02   7   7   3   1
 -0.7691584519747853E-01   7   7   3   2
  0.3063188286798240E+00   7   7   3   3
 -0.3105775187978103E-02   7   7   4   1
 -0.5954480689275937E-01   7   7   4   2
  0.7787479685692969E-01   7   7   4   3
  0.3463004675501671E+00   7   7   4   4
  0.5634143484531218E-02   7   7   5   1
  0.3465877083049004E-02   7   7   5   2
 -0.4138418323148818E-02   7   7   5   3
 -0.7147548231249820E-03   7   7   5   4
  0.2447161642084395E+00   7   7   5   5
  0.2378157720712315E-02   7   7   6   1
 -0.1326238885666951E-01   7   7   6   2
 -0.4159992309999021E-02   7   7   6   3
  0.1043080916501808E-01   7   7   6   4
 -0.5701117097029364E-01   7   7   6   5
  0.2804118273037549E+00   7   7   6   6
 -0.7280760391919980E-03   7   7   7   1
  0.5327525570674969E-02   7   7   7   2
 -0.1453687488887073E-02   7   7   7   3
 -0.2150203816500090E-02   7   7   7   4
  0.2165433993500342E-01   7   7   7   5
  0.2889429580021254E-01   7   7   7   6
  0.4465632386864248E+00   7   7   7   7
 -0.1078374887177989E+00   8   1   1   1
 -0.1258713176118026E-02   8   1   2   1
 -0.4944563851447120E-01   8   1   2   2
 -0.1378786103383163E-01   8   1   3   1
 -0.4631456197063219E-01   8   1   3   2
 -0.4425595851861033E-01   8   1   3   3
  0.1204032329469251E-01   8   1   4   1
  0.6463416890734021E-02   8   1   4   2
  0.6881709135216041E-02   8   1   4   3
 -0.1731737772208972E-02   8   1   4   4
  0.1132887916395588E-01   8   1   5   1
  0.5105628436304236E-01   8   1   5   2
  0.4885589439833635E-01   8   1   5   3
 -0.6841833509303816E-02   8   1   5   4
 -0.7171314519816567E-01   8   1   5   5
 -0.4739114821553544E-01   8   1   6   1
  0.1054884875385016E-01   8   1   6   2
  0.2584656290484733E-02   8   1   6   3
  0.5208510327014297E-02   8   1   6   4
 -0.1416768983933734E-01   8   1   6   5
 -0.4012980688601978E-01   8   1   6   6
  0.7216272261341368E-02   8   1   7   1
 -0.3990472786875551E-02   8   1   7   2
 -0.3028118759845393E-02   8   1   7   3
 -0.5793483992558805E-03   8   1   7   4
  0.5961360826208142E-02   8   1   7   5
  0.7293355987437095E-02   8   1   7   6
 -0.1437800049767198E-02   8   1   7   7
  0.4692152683831125E-01   8   1   8   1
 -0.2674958632297864E-01   8   2   1   1
 -0.3877291611143029E-02   8   2   2   1
 -0.1155625891982085E-01   8   2   2   2
 -0.7003243301828897E-02   8   2   3   1
 -0.1415572554463490E-01   8   2   3   2
 -0.1083944229482366E-01   8   2   3   3
  0.4217260719723054E-02   8   2   4   1
  0.3355083551637382E-02   8   2   4   2
  0.5088172354613485E-02   8   2   4   3
  0.3330641694904384E-02   8   2   4   4
  0.1676544409876734E-01   8   2   5   1
  0.1125399901638194E-01   8   2   5   2
  0.2306661003369145E-01   8   2   5   3
  0.3107679755856263E-02   8   2   5   4
 -0.2045052336988892E-01   8   2   5   5
 -0.7747617351328825E-02   8   2   6   1
  0.2977995739123229E-02   8   2   6   2
 -0.1711808182264536E-01   8   2   6   3
 -0.5585223855512418E-02   8   2   6   4
 -0.4015537676075102E-02   8   2   6   5
 -0.1006204643276354E-01   8   2   6   6
  0.4481788900509952E-03   8   2   7   1
 -0.4368225788915811E-03   8   2   7   2
  0.9797828856074897E-03   8   2   7   3
  0.5979723915087099E-03   8   2   7   4
  0.1847045671685331E-02   8   2   7   5
  0.2065997143535596E-02   8   2   7   6
  0.1599185874063287E-02   8   2   7   7
  0.1745269525492299E-01   8   2   8   1
  0.2463100790592464E-01   8   2   8   2
 -0.3860531965687902E-01   8   3   1   1
 -0.3276609400899206E-02   8   3   2   1
 -0.1550206586150860E-01   8   3   2   2
 -0.8963205880230118E-02   8   3   3   1
 -0.1793120029028758E-01   8   3   3   2
 -0.1991037428719072E-01   8   3   3   3
  0.5936205542200495E-02   8   3   4   1
  0.7412203899688599E-02   8   3   4   2
  0.1402396885448738E-02   8   3   4   3
 -0.1541315122009888E-02   8   3   4   4
  0.1828467829386353E-01   8   3   5   1
  0.3159903173998481E-01   8   3   5   2
  0.1244418711027594E-01   8   3   5   3
 -0.7426775319674046E-02   8   3   5   4
 -0.2660557192260611E-01   8   3   5   5
 -0.1494901426748858E-01   8   3   6   1
 -0.1594020780293985E-01   8   3   6   2
  0.7899870798878734E-02   8   3   6   3
  0.1180669659011081E-01   8   3   6   4
 -0.5304205770337937E-02   8   3   6   5
 -0.1453368143144061E-01   8   3   6   6
  0.1526141024314014E-02   8   3   7   1
  0.1863928830907910E-02   8   3   7   2
 -0.2686402005220979E-02   8   3   7   3
 -0.1730600874059241E-02   8   3   7   4
  0.2458057172001616E-02   8   3   7   5
  0.2642333419290923E-02   8   3   7   6
 -0.4234921038927545E-03   8   3   7   7
  0.2114469371213840E-01   8   3   8   1
  0.2313079662993201E-02   8   3   8   2
  0.3221334720456980E-01   8   3   8   3
  0.5978866223461221E-01   8   4   1   1
  0.4807606684328147E-02   8   4   2   1
  0.3052819703063311E-01   8   4   2   2
  0.8815143835749165E-02   8   4   3   1
  0.3164266042723365E-01   8   4   3   2
  0.2029281384086468E-01   8   4   3   3
 -0.2777840822370310E-02   8   4   4   1
  0.2814518523386507E-02   8   4   4   2
 -0.7490394983840862E-02   8   4   4   3
 -0.6391650575975535E-02   8   4   4   4
 -0.2408589001077966E-02   8   4   5   1
 -0.2755543068309822E-02   8   4   5   2
 -0.2076653963789228E-01   8   4   5   3
  0.3442250624088594E-03   8   4   5   4
  0.4306527934520019E-01   8   4   5   5
  0.8632801329146816E-02   8   4   6   1
 -0.1381794369772221E-01   8   4   6   2
  0.1245659057938848E-01   8   4   6   3
  0.4354821810749050E-02   8   4   6   4
  0.7798051242017744E-02   8   4   6   5
  0.2500010118078005E-01   8   4   6   6
 -0.1304240991607001E-02   8   4   7   1
  0.2178614667357457E-02   8   4   7   2
 -0.9428042435887208E-03   8   4   7   3
 -0.6983170311480418E-03   8   4   7   4
 -0.3883397424323447E-02   8   4   7   5
 -0.5942787478688296E-02   8   4   7   6
 -0.7713503488067469E-02   8   4   7   7
 -0.9023516828248861E-02   8   4   8   1
 -0.1196414342515737E-01   8   4   8   2
  0.9316298630186570E-02   8   4   8   3
  0.2021864743231925E-01   8   4   8   4
  0.1133597649778143E+00   8   5   1   1
  0.3776090181977473E-01   8   5   2   1
  0.4936668746749683E-01   8   5   2   2
  0.4532831319161561E-01   8   5   3   1
  0.7411449537567730E-01   8   5   3   2
  0.3454864854122290E-01   8   5   3   3
 -0.8702212347058650E-02   8   5   4   1
  0.1171685714381774E-01   8   5   4   2
 -0.2504305652642250E-01   8   5   4   3
 -0.2491104189496120E-01   8   5   4   4
 -0.1969014308660648E-01   8   5   5   1
 -0.2549088346738069E-01   8   5   5   2
 -0.3792674421298111E-01   8   5   5   3
  0.1711968544755811E-01   8   5   5   4
  0.7993539403715104E-01   8   5   5   5
  0.2224217195439958E-01   8   5   6   1
 -0.7968669567002857E-02   8   5   6   2
  0.4531172726475465E-02   8   5   6   3
 -0.9384333765959048E-02   8   5   6   4
  0.4651035522104977E-02   8   5   6   5
  0.1611229460715874E-01   8   5   6   6
 -0.2684013587283630E-02   8   5   7   1
  0.3140148761921897E-02   8   5   7   2
  0.1023464867181533E-03   8   5   7   3
  0.4046939785628733E-03   8   5   7   4
 -0.7145320005597954E-02   8   5   7   5
 -0.9691628660532400E-02   8   5   7   6
 -0.4087134231349925E-01   8   5   7   7
 -0.2534545308954092E-01   8   5   8   1
 -0.8001164533412500E-02   8   5   8   2
 -0.9295404345324224E-02   8   5   8   3
  0.2001620200879140E-01   8   5   8   4
  0.6980490132960672E-01   8   5   8   5
 -0.1728660603585992E+00   8   6   1   1
  0.1204911841507567E-01   8   6   2   1
 -0.5935255251728704E-01   8   6   2   2
 -0.7794993980126889E-02   8   6   3   1
 -0.1111142081442715E+00   8   6   3   2
 -0.2948090894650052E-01   8   6   3   3
  0.7927978789695918E-02   8   6   4   1
 -0.1943132808156512E-01   8   6   4   2
  0.3781042988433369E-01   8   6   4   3
  0.5641581489888297E-01   8   6   4   4
  0.3605385544287406E-02   8   6   5   1
  0.3533300813123964E-01   8   6   5   2
  0.4159653508143672E-01   8   6   5   3
 -0.1197681628155338E-01   8   6   5   4
 -0.9823534423612487E-01   8   6   5   5
 -0.3303672494363749E-01   8   6   6   1
  0.1138005681509686E-01   8   6   6   2
 -0.5367161840206671E-02   8   6   6   3
  0.1625988635352936E-01   8   6   6   4
 -0.5931360076601046E-01   8   6   6   5
 -0.4568257061633695E-01   8   6   6   6
  0.5109287896195486E-02   8   6   7   1
 -0.1845403659007842E-02   8   6   7   2
 -0.2243419892158860E-02   8   6   7   3
 -0.2368644557578703E-02   8   6   7   4
  0.1819857678537713E-01   8   6   7   5
  0.2581246119425853E-01   8   6   7   6
  0.7780175047799713E-01   8   6   7   7
  0.2754790418481731E-01   8   6   8   1
  0.7970850895630842E-02   8   6   8   2
  0.8734240930501805E-02   8   6   8   3
 -0.2301338875022999E-01   8   6   8   4
 -0.5868195871080772E-01   8   6   8   5
  0.9607939845746741E-01   8   6   8   6
  0.2326840035367495E-01   8   7   1   1
 -0.4619488756868054E-02   8   7   2   1
  0.6794210911506880E-02   8   7   2   2
 -0.1580936691351894E-02   8   7   3   1
  0.1488760664044438E-01   8   7   3   2
  0.2824144887931352E-02   8   7   3   3
 -0.8643133705533996E-03   8   7   4   1
  0.2360644610780738E-02   8   7   4   2
 -0.5074272958250426E-02   8   7   4   3
 -0.8768729653867531E-02   8   7   4   4
  0.1669516821760741E-03   8   7   5   1
 -0.5177010851073496E-02   8   7   5   2
 -0.4995144608505456E-02   8   7   5   3
  0.7161027029241767E-03   8   7   5   4
  0.1105680313027628E-01   8   7   5   5
  0.4208392826679428E-02   8   7   6   1
 -0.1423759686725487E-02   8   7   6   2
  0.9702590824768409E-03   8   7   6   3
 -0.2516842215023859E-02   8   7   6   4
  0.9799731598790091E-02   8   7   6   5
  0.1045504246224549E-01   8   7   6   6
 -0.8832501696310335E-03   8   7   7   1
 -0.8856795573814113E-03   8   7   7   2
  0.6145955355971898E-03   8   7   7   3
 -0.1066388860249339E-03   8   7   7   4
 -0.9267491594902845E-02   8   7   7   5
  0.5711679954629685E-02   8   7   7   6
 -0.1398387622189406E-01   8   7   7   7
 -0.3386583788777049E-02   8   7   8   1
 -0.1175068699878766E-02   8   7   8   2
 -0.1335037073735433E-02   8   7   8   3
  0.2763914097127026E-02   8   7   8   4
  0.6214043681666245E-02   8   7   8   5
 -0.1134697820015426E-01   8   7   8   6
  0.1349504013042366E-01   8   7   8   7
  0.4346757277144155E+00   8   8   1   1
  0.3089030401706219E-01   8   8   2   1
  0.3664298257213054E+00   8   8   2   2
  0.4083148497572481E-01   8   8   3   1
  0.6241330115054525E-01   8   8   3   2
  0.3551444706210521E+00   8   8   3   3
 -0.1462579669368704E-01   8   8   4   1
 -0.3688853081978186E-01   8   8   4   2
  0.3333991669801084E-01   8   8   4   3
  0.2870505645552440E+00   8   8   4   4
 -0.7276486076630726E-02   8   8   5   1
 -0.3749408957413330E-01   8   8   5   2
 -0.6055540689575328E-01   8   8   5   3
  0.2169269979689709E-01   8   8   5   4
  0.3875508363916881E+00   8   8   5   5
  0.4168141688267163E-01   8   8   6   1
 -0.2984723657294580E-01   8   8   6   2
  0.1289885082061730E-02   8   8   6   3
 -0.1033537647793447E-01   8   8   6   4
 -0.1875320176518100E-01   8   8   6   5
  0.3487781606399327E+00   8   8   6   6
 -0.6514498659156792E-02   8   8   7   1
  0.8450223951397395E-02   8   8   7   2
  0.8471470502270260E-03   8   8   7   3
  0.3875749241023093E-03   8   8   7   4
 -0.4352897828317219E-03   8   8   7   5
 -0.4891107105751902E-02   8   8   7   6
  0.3144764714515125E+00   8   8   7   7
 -0.3764360642581216E-01   8   8   8   1
 -0.6639295605328190E-02   8   8   8   2
 -0.1411742174218109E-01   8   8   8   3
  0.2427881591940937E-01   8   8   8   4
  0.4063930306810037E-01   8   8   8   5
 -0.1990595739971149E-01   8   8   8   6
  0.5998172542299009E-03   8   8   8   7
  0.3845699489471357E+00   8   8   8   8
  0.1672140982976099E-03   9   1   1   1
 -0.1477790913601932E-02   9   1   2   1
  0.2862139022782199E-01   9   1   2   2
 -0.7750753379574349E-03   9   1   3   1
  0.2673849264328753E-01   9   1   3   2
  0.2301235894052737E-01   9   1   3   3
 -0.4411168589092781E-03   9   1   4   1
 -0.2028576736269488E-02   9   1   4   2
 -0.2200757579645005E-02   9   1   4   3
 -0.6290216821536661E-03   9   1   4   4
  0.7046419248510256E-03   9   1   5   1
 -0.1097746132881878E-01   9   1   5   2
 -0.1076389122067271E-01   9   1   5   3
  0.2555159968850613E-02   9   1   5   4
  0.2809564228054124E-01   9   1   5   5
  0.3514846747709300E-03   9   1   6   1
 -0.1625819034066887E-02   9   1   6   2
 -0.2611056592810743E-02   9   1   6   3
  0.7942396401168052E-03   9   1   6   4
  0.8930636283765779E-02   9   1   6   5
  0.2117759300719549E-02   9   1   6   6
  0.2036921604445995E-03   9   1   7   1
  0.1540351194272643E-02   9   1   7   2
 -0.8987277767555282E-04   9   1   7   3
 -0.4596014099969449E-03   9   1   7   4
 -0.2767810827819566E-02   9   1   7   5
 -0.1324281633491364E-02   9   1   7   6
 -0.7929432475416668E-03   9   1   7   7
  0.4372521286175688E-03   9   1   8   1
 -0.1767850516859631E-02   9   1   8   2
 -0.2043321857694545E-02   9   1   8   3
  0.4578618857323984E-03   9   1   8   4
  0.8671163367587640E-02   9   1   8   5
  0.1826712882395385E-02   9   1   8   6
 -0.1197146604054964E-02   9   1   8   7
  0.2013672107131694E-02   9   1   8   8
  0.7798391809691174E-01   9   1   9   1
 -0.2840718825649820E-02   9   2   1   1
  0.6324854094222826E-01   9   2   2   1
 -0.1320734730163036E-02   9   2   2   2
  0.5610745431065413E-01   9   2   3   1
 -0.4664308549130289E-02   9   2   3   2
  0.8487647388086241E-02   9   2   3   3
 -0.4540301351424371E-02   9   2   4   1
 -0.1248319124704468E-02   9   2   4   2
 -0.1484179644694490E-02   9   2   4   3
  0.9101321257806862E-02   9   2   4   4
 -0.2656301101523266E-01   9   2   5   1
  0.4762982588842560E-02   9   2   5   2
 -0.4052881140164387E-02   9   2   5   3
  0.8476569530932154E-02   9   2   5   4
  0.3846710047189953E-03   9   2   5   5
 -0.5754802094168099E-02   9   2   6   1
  0.4449843290994879E-02   9   2   6   2
  0.5009715099571508E-02   9   2   6   3
  0.6989703164587766E-03   9   2   6   4
 -0.4159062280768125E-01   9   2   6   5
 -0.1985374264819936E-01   9   2   6   6
  0.2057768624428274E-02   9   2   7   1
  0.3435837840253113E-03   9   2   7   2
 -0.1548052107649928E-02   9   2   7   3
 -0.7694954959588968E-03   9   2   7   4
  0.7476630508294223E-02   9   2   7   5